title="temperature" 
variables=t,T 
zone t="yesterday" 
i=8,j=1,f=point 
8 13.2 
9 15.1 
10 16.4 
11 20.5 
12 22.9 
13 23.1 
14 20.4 
15 18.7 
zone t="today " 
i=8,j=1,f=point 
8 17.2 
9 17.1 
10 19.4 
11 23.5 
12 24.9 
13 25.1 
14 23.4 
15 20.7